Title: rc
Date: Thu Jul 23 00:00:00 2026
Plotname: Transient Analysis
Flags: real forward
No. Variables: 2
No. Points: 3
Variables:
	0	time	time
	1	V(out)	voltage
Values:
0	0.000000e+00
	0.000000e+00
1	1.000000e-03
	6.321206e-01
2	5.000000e-03
	9.932621e-01
